                         Program Version 4.2.0 -  RELEASE  -
|  1> ! MP3 6-31G
|  2>
|  3> %pal nprocs 4 end
|  4>
|  5> %scf ConvForced True end
|  6>
|  7> *xyz 0 1
|  8>   O      1.784914    1.262422    0.511985
|  9>   H      2.648237    1.072929    0.131631
| 10>   H      1.183168    1.256816   -0.238835
| 11> *
| 12>
| 13>                          ****END OF INPUT****

CARTESIAN COORDINATES (ANGSTROEM)
---------------------------------
  O      1.784914    1.262422    0.511985
  H      2.648237    1.072929    0.131631
  H      1.183168    1.256816   -0.238835

 Total Charge           Charge          ....    0
 Multiplicity           Mult            ....    1
 Number of Electrons    NEL             ....   10
 Basis Dimension        Dim             ....   13

ORBITAL ENERGIES
----------------

  NO   OCC          E(Eh)            E(eV)
   0   2.0000     -20.561403      -559.5042
   1   2.0000      -1.353679       -36.8355
   2   2.0000      -0.707508       -19.2523
   3   2.0000      -0.559807       -15.2331
   4   2.0000      -0.501106       -13.6358
   5   0.0000       0.202618         5.5135
   6   0.0000       0.298511         8.1229
   7   0.0000       1.056054        28.7367
   8   0.0000       1.164462        31.6866
   9   0.0000       1.180474        32.1223

MULLIKEN ATOMIC CHARGES
-----------------------
   0 O :   -0.792965
   1 H :    0.396483
   2 H :    0.396482
Sum of atomic charges:   -0.0000000

LOEWDIN ATOMIC CHARGES
----------------------
   0 O :   -0.583283
   1 H :    0.291644
   2 H :    0.291639

  Mayer bond orders larger than 0.100000
B(  0-O ,  1-H ) :   0.8029 B(  0-O ,  2-H ) :   0.8029

FINAL SINGLE POINT ENERGY       -76.113783479699

DIPOLE MOMENT
-------------
                                X             Y             Z
Electronic contribution:      0.01227      -0.00916      -0.05310
Nuclear contribution   :      0.21773      -0.16239      -0.94154
                        -----------------------------------------
Total Dipole Moment    :      0.22999      -0.17155      -0.99464
                        -----------------------------------------
Magnitude (a.u.)       :      1.03520
Magnitude (Debye)      :      2.63127

Rotational constants in cm-1:    27.172637    14.432751     9.426085
Rotational constants in MHz : 814615.168427 432682.991980 282586.906303

                             ****ORCA TERMINATED NORMALLY****
TOTAL RUN TIME: 0 days 0 hours 0 minutes 10 seconds 81 msec
